CRYSTAL
PRIMVEC
  2.459515   0.000000   0.000000
 -1.229760   2.130002   0.000000
  0.000000   0.000000  10.583544
PRIMCOORD
2 1
 6  -0.000002   1.420001   0.000000
 6   1.229757   0.710001   0.000000
