
*************** JDFTx 1.6.0  ***************

Start date and time: Thu Jul  1 16:56:22 2021
Executable jdftx with command-line: -i graphene.in
Running on hosts (process indices):  dhcp-10-31-111-144.dyn.mit.edu (0-3)
Divided in process groups (process indices):  0 (0)  1 (1)  2 (2)  3 (3)
Resource initialization completed at t[s]:      0.00
Run totals: 4 processes, 8 threads, 0 GPUs


Input parsed successfully to the following command list (including defaults):

basis kpoint-dependent
coords-type Lattice
core-overlap-check vector
coulomb-interaction Slab 001
davidson-band-ratio 1.1
dump End State DOS
dump-name graphene.in.$VAR
elec-cutoff 20 100
elec-eigen-algo Davidson
elec-ex-corr gga-PBE
elec-initial-charge 0.000000
elec-smearing Fermi 0.01
electronic-minimize  \
	dirUpdateScheme      FletcherReeves \
	linminMethod         DirUpdateRecommended \
	nIterations          100 \
	history              15 \
	knormThreshold       0 \
	energyDiffThreshold  1e-08 \
	nEnergyDiff          2 \
	alphaTstart          1 \
	alphaTmin            1e-10 \
	updateTestStepSize   yes \
	alphaTreduceFactor   0.1 \
	alphaTincreaseFactor 3 \
	nAlphaAdjustMax      3 \
	wolfeEnergy          0.0001 \
	wolfeGradient        0.9 \
	fdTest               no
electronic-scf  \
	nIterations	50 \
	energyDiffThreshold	1e-08 \
	residualThreshold	1e-07 \
	mixFraction	0.5 \
	qMetric	0.8 \
	history	10 \
	nEigSteps	2 \
	eigDiffThreshold	1e-08 \
	mixedVariable	Density \
	qKerker	0.8 \
	qKappa	-1 \
	verbose	no \
	mixFractionMag	1.5
exchange-regularization WignerSeitzTruncated
fluid None
fluid-ex-corr  lda-PZ
fluid-gummel-loop 10 1.000000e-05
fluid-minimize  \
	dirUpdateScheme      PolakRibiere \
	linminMethod         DirUpdateRecommended \
	nIterations          100 \
	history              15 \
	knormThreshold       0 \
	energyDiffThreshold  0 \
	nEnergyDiff          2 \
	alphaTstart          1 \
	alphaTmin            1e-10 \
	updateTestStepSize   yes \
	alphaTreduceFactor   0.1 \
	alphaTincreaseFactor 3 \
	nAlphaAdjustMax      3 \
	wolfeEnergy          0.0001 \
	wolfeGradient        0.9 \
	fdTest               no
fluid-solvent H2O 55.338 ScalarEOS \
	epsBulk 78.4 \
	pMol 0.92466 \
	epsInf 1.77 \
	Pvap 1.06736e-10 \
	sigmaBulk 4.62e-05 \
	Rvdw 2.61727 \
	Res 1.42 \
	tauNuc 343133 \
	poleEl 15 7 1
forces-output-coords Positions
ion C   0.333330000000000   0.666660000000000   0.000000000000000 0
ion C   0.666660000000000   0.333330000000000   0.000000000000000 0
ion-species SG15/$ID_ONCV_PBE.upf
ion-width 0
ionic-minimize  \
	dirUpdateScheme      L-BFGS \
	linminMethod         DirUpdateRecommended \
	nIterations          0 \
	history              15 \
	knormThreshold       0.0001 \
	energyDiffThreshold  1e-06 \
	nEnergyDiff          2 \
	alphaTstart          1 \
	alphaTmin            1e-10 \
	updateTestStepSize   yes \
	alphaTreduceFactor   0.1 \
	alphaTincreaseFactor 3 \
	nAlphaAdjustMax      3 \
	wolfeEnergy          0.0001 \
	wolfeGradient        0.9 \
	fdTest               no
kpoint   0.000000000000   0.000000000000   0.000000000000  1.00000000000000
kpoint-folding 24 24 1 
latt-move-scale 1 1 1
latt-scale 1 1 1 
lattice  \
	   4.647813889073730   -2.323906944536865    0.000000000000000  \
	   0.000000000000000    4.025124899999999    0.000000000000000  \
	   0.000000000000000    0.000000000000000   20.000000000000000 
lattice-minimize  \
	dirUpdateScheme      L-BFGS \
	linminMethod         DirUpdateRecommended \
	nIterations          0 \
	history              15 \
	knormThreshold       0 \
	energyDiffThreshold  1e-06 \
	nEnergyDiff          2 \
	alphaTstart          1 \
	alphaTmin            1e-10 \
	updateTestStepSize   yes \
	alphaTreduceFactor   0.1 \
	alphaTincreaseFactor 3 \
	nAlphaAdjustMax      3 \
	wolfeEnergy          0.0001 \
	wolfeGradient        0.9 \
	fdTest               no
lcao-params -1 1e-06 0.01
pcm-variant GLSSA13
spintype no-spin
subspace-rotation-factor 1 yes
symmetries automatic
symmetry-threshold 0.0001



---------- Setting up symmetries ----------

Found 24 point-group symmetries of the bravais lattice
Found 24 space-group symmetries with basis
Applied RMS atom displacement 1.34171e-05 bohrs to make symmetries exact.

---------- Initializing the Grid ----------
R = 
[      4.64781     -2.32391            0  ]
[            0      4.02512            0  ]
[            0            0           20  ]
unit cell volume = 374.161
G =
[    1.35186   0.780496         -0  ]
[          0    1.56099          0  ]
[          0         -0   0.314159  ]
Minimum fftbox size, Smin = [  24  24  92  ]
Chosen fftbox size, S = [  24  24  96  ]

---------- Initializing tighter grid for wavefunction operations ----------
R = 
[      4.64781     -2.32391            0  ]
[            0      4.02512            0  ]
[            0            0           20  ]
unit cell volume = 374.161
G =
[    1.35186   0.780496         -0  ]
[          0    1.56099          0  ]
[          0         -0   0.314159  ]
Minimum fftbox size, Smin = [  20  20  84  ]
Chosen fftbox size, S = [  20  20  84  ]

---------- Exchange Correlation functional ----------
Initalized PBE GGA exchange.
Initalized PBE GGA correlation.

---------- Setting up pseudopotentials ----------
Width of ionic core gaussian charges (only for fluid interactions / plotting) set to 0

Reading pseudopotential file '/Users/ali/Desktop/JDFTX/build-withlibxc/pseudopotentials/SG15/c_ONCV_PBE.upf':
  'C' pseudopotential, 'PBE' functional
  Generated using ONCVPSP code by D. R. Hamann
  Author: Martin Schlipf and Francois Gygi  Date: 150915.
  4 valence electrons, 2 orbitals, 4 projectors, 1248 radial grid points, with lMax = 1
  Transforming local potential to a uniform radial grid of dG=0.02 with 1794 points.
  Transforming nonlocal projectors to a uniform radial grid of dG=0.02 with 432 points.
    2S    l: 0   occupation:  2.0   eigenvalue: -0.505335
    2P    l: 1   occupation:  2.0   eigenvalue: -0.194238
  Transforming atomic orbitals to a uniform radial grid of dG=0.02 with 432 points.
  Core radius for overlap checks: 1.23 bohrs.
  Reading pulay file /Users/ali/Desktop/JDFTX/build-withlibxc/pseudopotentials/SG15/c_ONCV_PBE.pulay ... using dE_dnG = -9.239532e-03 computed for Ecut = 20.

Initialized 1 species with 2 total atoms.

Folded 1 k-points by 24x24x1 to 576 k-points.

---------- Setting up k-points, bands, fillings ----------
Reduced to 61 k-points under symmetry. 
Computing the number of bands and number of electrons
Calculating initial fillings.
nElectrons:   8.000000   nBands: 8   nStates: 61

----- Setting up reduced wavefunction bases (one per k-point) -----
average nbasis = 1598.082 , ideal nbasis = 1598.443

----- Initializing Supercell corresponding to k-point mesh -----
Lattice vector linear combinations in supercell:
[  24   0   0  ]
[   0  24   0  ]
[   0   0   1  ]
Supercell lattice vectors:
[  111.548  -55.7738  0  ]
[  0  96.603  0  ]
[  0  0  20  ]

---------- Setting up coulomb interaction ----------
Initialized slab truncation along lattice direction 001

---------- Setting up 2D ewald sum ----------
Optimum gaussian width for ewald sums = 2.580279 bohr.
Real space sums over 289 unit cells with max indices [  8  8  0  ]
Reciprocal space sums over 81 terms with max indices [  4  4  0  ]

---------- Allocating electronic variables ----------
Initializing wave functions:  linear combination of atomic orbitals
C pseudo-atom occupations:   s ( 2 )  p ( 2 )
	FillingsUpdate:  mu: -0.305714797  nElectrons: 8.000000
LCAOMinimize: Iter:   0  F: -11.2433863688580296  |grad|_K:  4.759e-05  alpha:  1.000e+00
	FillingsUpdate:  mu: -0.305705892  nElectrons: 8.000000
LCAOMinimize: Iter:   1  F: -11.2433918909179340  |grad|_K:  3.290e-07  alpha:  9.872e-01  linmin: -6.861e-02  cgtest:  5.492e-01  t[s]:      1.80
LCAOMinimize: Encountered beta<0, resetting CG.
	FillingsUpdate:  mu: -0.305704076  nElectrons: 8.000000
LCAOMinimize: Iter:   2  F: -11.2433918911834798  |grad|_K:  2.229e-09  alpha:  9.937e-01  linmin:  4.659e-03  cgtest: -6.194e-02  t[s]:      2.01
LCAOMinimize: 	Wrong curvature in test step, increasing alphaT to 2.981192e+00.
	FillingsUpdate:  mu: -0.305704082  nElectrons: 8.000000
LCAOMinimize: Iter:   3  F: -11.2433918911839630  |grad|_K:  1.395e-10  alpha: -2.633e-02  linmin:  7.688e-03  cgtest: -3.820e-02  t[s]:      2.21
LCAOMinimize: Converged (|Delta F|<1.000000e-06 for 2 iters).


---- Citations for features of the code used in this run ----

   Software package:
      R. Sundararaman, K. Letchworth-Weaver, K.A. Schwarz, D. Gunceler, Y. Ozhabes and T.A. Arias, 'JDFTx: software for joint density-functional theory', SoftwareX 6, 278 (2017)

   gga-PBE exchange-correlation functional:
      J.P. Perdew, K. Burke and M. Ernzerhof, Phys. Rev. Lett. 77, 3865 (1996)

   Pseudopotentials:
      M Schlipf and F Gygi, Comput. Phys. Commun. 196, 36 (2015)

   Truncated Coulomb potentials:
      R. Sundararaman and T.A. Arias, Phys. Rev. B 87, 165122 (2013)

   Linear-tetrahedron sampling for density of states:
      G. Lehmann and M. Taut, Phys. status solidi (b) 54, 469 (1972)

This list may not be complete. Please suggest additional citations or
report any other bugs at https://github.com/shankar1729/jdftx/issues

Initialization completed successfully at t[s]:      2.25

	FillingsUpdate:  mu: -0.305704082  nElectrons: 8.000000

-------- Electronic minimization -----------
Will mix electronic density at each iteration.
	FillingsUpdate:  mu: -0.305704082  nElectrons: 8.000000
	FillingsUpdate:  mu: -0.315643581  nElectrons: 8.000000
SCF: Cycle:  0   F: -11.353863518631305   dF: -1.105e-01   |Residual|: 1.404e-01   |deigs|: 1.141e-01  t[s]:      2.89
	FillingsUpdate:  mu: -0.285376368  nElectrons: 8.000000
SCF: Cycle:  1   F: -11.362020153844938   dF: -8.157e-03   |Residual|: 8.207e-02   |deigs|: 3.454e-02  t[s]:      3.34
	FillingsUpdate:  mu: -0.233506836  nElectrons: 8.000000
SCF: Cycle:  2   F: -11.369270732226088   dF: -7.251e-03   |Residual|: 2.665e-02   |deigs|: 5.747e-02  t[s]:      3.79
	FillingsUpdate:  mu: -0.236017134  nElectrons: 8.000000
SCF: Cycle:  3   F: -11.369016511706162   dF: +2.542e-04   |Residual|: 1.217e-02   |deigs|: 1.400e-02  t[s]:      4.23
	FillingsUpdate:  mu: -0.210761465  nElectrons: 8.000000
SCF: Cycle:  4   F: -11.369472090780018   dF: -4.556e-04   |Residual|: 8.900e-03   |deigs|: 2.474e-02  t[s]:      4.67
	FillingsUpdate:  mu: -0.197217020  nElectrons: 8.000000
SCF: Cycle:  5   F: -11.369575076678938   dF: -1.030e-04   |Residual|: 5.504e-03   |deigs|: 1.282e-02  t[s]:      5.10
	FillingsUpdate:  mu: -0.175306775  nElectrons: 8.000000
SCF: Cycle:  6   F: -11.369692485580979   dF: -1.174e-04   |Residual|: 6.003e-03   |deigs|: 2.327e-02  t[s]:      5.54
	FillingsUpdate:  mu: -0.158399664  nElectrons: 8.000000
SCF: Cycle:  7   F: -11.369739780759840   dF: -4.730e-05   |Residual|: 2.281e-03   |deigs|: 1.483e-02  t[s]:      5.99
	FillingsUpdate:  mu: -0.161098571  nElectrons: 8.000000
SCF: Cycle:  8   F: -11.369742330832398   dF: -2.550e-06   |Residual|: 3.195e-03   |deigs|: 6.845e-03  t[s]:      6.43
	FillingsUpdate:  mu: -0.154421835  nElectrons: 8.000000
SCF: Cycle:  9   F: -11.369760134122151   dF: -1.780e-05   |Residual|: 6.594e-04   |deigs|: 6.461e-03  t[s]:      6.88
	FillingsUpdate:  mu: -0.154843341  nElectrons: 8.000000
SCF: Cycle: 10   F: -11.369760502645599   dF: -3.685e-07   |Residual|: 1.306e-04   |deigs|: 2.183e-03  t[s]:      7.32
	FillingsUpdate:  mu: -0.154889163  nElectrons: 8.000000
SCF: Cycle: 11   F: -11.369760605483787   dF: -1.028e-07   |Residual|: 3.623e-05   |deigs|: 1.428e-03  t[s]:      7.75
	FillingsUpdate:  mu: -0.154848531  nElectrons: 8.000000
SCF: Cycle: 12   F: -11.369760634640715   dF: -2.916e-08   |Residual|: 2.644e-05   |deigs|: 2.533e-03  t[s]:      8.22
	FillingsUpdate:  mu: -0.154866816  nElectrons: 8.000000
SCF: Cycle: 13   F: -11.369760644659809   dF: -1.002e-08   |Residual|: 1.734e-06   |deigs|: 1.864e-03  t[s]:      8.70
	FillingsUpdate:  mu: -0.154865520  nElectrons: 8.000000
SCF: Cycle: 14   F: -11.369760648521728   dF: -3.862e-09   |Residual|: 1.822e-06   |deigs|: 8.108e-04  t[s]:      9.23
	FillingsUpdate:  mu: -0.154865162  nElectrons: 8.000000
SCF: Cycle: 15   F: -11.369760649977925   dF: -1.456e-09   |Residual|: 3.017e-07   |deigs|: 4.815e-04  t[s]:      9.75
SCF: Converged (|Delta E|<1.000000e-08 for 2 iters).


# Ionic positions in lattice coordinates:
ion C   0.333328333333333   0.666661666666667   0.000000000000000 0
ion C   0.666661666666667   0.333328333333333   0.000000000000000 0

# Forces in Lattice coordinates:
force C  -0.000000000000000   0.000000000000000  -0.000000000000000 0
force C  -0.000000000000000   0.000000000000000  -0.000000000000000 0

# Energy components:
   Eewald =      -19.8136758319828985
       EH =      -11.3374042923980909
     Eloc =       14.7368049447642573
      Enl =        0.3333223264957583
   Epulay =       -0.0000178350438104
      Exc =       -3.5079845202003872
       KE =        8.2196952936212710
-------------------------------------
     Etot =      -11.3692599147438997
       TS =        0.0005007352340253
-------------------------------------
        F =      -11.3697606499779251

IonicMinimize: Iter:   0  F: -11.369760649977925  |grad|_K:  0.000e+00  t[s]:      9.80
IonicMinimize: Converged (|grad|_K<1.000000e-04).

#--- Lowdin population analysis ---
# oxidation-state C +0.043 +0.043


Dumping 'graphene.in.fillings' ... done
Dumping 'graphene.in.wfns' ... done
Dumping 'graphene.in.eigenvals' ... done
Dumping 'graphene.in.dos' ... done.
End date and time: Thu Jul  1 16:56:32 2021  (Duration: 0-0:00:09.97)
Done!
