
*************** JDFTx 1.6.0  ***************

Start date and time: Sun Apr 18 16:19:20 2021
Executable jdftx with command-line: -i TotalE.in
Running on hosts (process indices):  dhcp-10-31-224-182.dyn.MIT.EDU (0-3)
Divided in process groups (process indices):  0 (0)  1 (1)  2 (2)  3 (3)
Resource initialization completed at t[s]:      0.00
Run totals: 4 processes, 8 threads, 0 GPUs


Input parsed successfully to the following command list (including defaults):

basis kpoint-dependent
converge-empty-states yes
coords-type Lattice
core-overlap-check vector
coulomb-interaction Periodic
davidson-band-ratio 1.1
density-of-states Etol 1.000000e-06 Esigma 0.000000e+00 \
		Complete \
	Total
dump End State ElecDensity BandEigs DOS FermiVelocity
dump 
dump-name totalE.$VAR
elec-cutoff 30
elec-eigen-algo Davidson
elec-ex-corr gga-PBE
elec-n-bands 16
elec-smearing Fermi 0.01
electronic-minimize  \
	dirUpdateScheme      FletcherReeves \
	linminMethod         DirUpdateRecommended \
	nIterations          100 \
	history              15 \
	knormThreshold       0 \
	energyDiffThreshold  1e-08 \
	nEnergyDiff          2 \
	alphaTstart          1 \
	alphaTmin            1e-10 \
	updateTestStepSize   yes \
	alphaTreduceFactor   0.1 \
	alphaTincreaseFactor 3 \
	nAlphaAdjustMax      3 \
	wolfeEnergy          0.0001 \
	wolfeGradient        0.9 \
	fdTest               no
electronic-scf  \
	nIterations	50 \
	energyDiffThreshold	1e-08 \
	residualThreshold	1e-07 \
	mixFraction	0.5 \
	qMetric	0.8 \
	history	10 \
	nEigSteps	2 \
	eigDiffThreshold	1e-08 \
	mixedVariable	Density \
	qKerker	0.8 \
	qKappa	-1 \
	verbose	no \
	mixFractionMag	1.5
exchange-regularization WignerSeitzTruncated
fluid None
fluid-ex-corr  lda-PZ
fluid-gummel-loop 10 1.000000e-05
fluid-minimize  \
	dirUpdateScheme      PolakRibiere \
	linminMethod         DirUpdateRecommended \
	nIterations          100 \
	history              15 \
	knormThreshold       0 \
	energyDiffThreshold  0 \
	nEnergyDiff          2 \
	alphaTstart          1 \
	alphaTmin            1e-10 \
	updateTestStepSize   yes \
	alphaTreduceFactor   0.1 \
	alphaTincreaseFactor 3 \
	nAlphaAdjustMax      3 \
	wolfeEnergy          0.0001 \
	wolfeGradient        0.9 \
	fdTest               no
fluid-solvent H2O 55.338 ScalarEOS \
	epsBulk 78.4 \
	pMol 0.92466 \
	epsInf 1.77 \
	Pvap 1.06736e-10 \
	sigmaBulk 4.62e-05 \
	Rvdw 2.61727 \
	Res 1.42 \
	tauNuc 343133 \
	poleEl 15 7 1
forces-output-coords Positions
ion Al   0.000000000000000   0.000000000000000   0.000000000000000 0
ion-species SG15/$ID_ONCV_PBE.upf
ion-width 0
ionic-minimize  \
	dirUpdateScheme      L-BFGS \
	linminMethod         DirUpdateRecommended \
	nIterations          0 \
	history              15 \
	knormThreshold       0.0001 \
	energyDiffThreshold  1e-06 \
	nEnergyDiff          2 \
	alphaTstart          1 \
	alphaTmin            1e-10 \
	updateTestStepSize   yes \
	alphaTreduceFactor   0.1 \
	alphaTincreaseFactor 3 \
	nAlphaAdjustMax      3 \
	wolfeEnergy          0.0001 \
	wolfeGradient        0.9 \
	fdTest               no
kpoint   0.000000000000   0.000000000000   0.000000000000  1.00000000000000
kpoint-folding 12 12 12 
latt-move-scale 1 1 1
latt-scale 1 1 1 
lattice Face-Centered Cubic 7.65
lattice-minimize  \
	dirUpdateScheme      L-BFGS \
	linminMethod         DirUpdateRecommended \
	nIterations          0 \
	history              15 \
	knormThreshold       0 \
	energyDiffThreshold  1e-06 \
	nEnergyDiff          2 \
	alphaTstart          1 \
	alphaTmin            1e-10 \
	updateTestStepSize   yes \
	alphaTreduceFactor   0.1 \
	alphaTincreaseFactor 3 \
	nAlphaAdjustMax      3 \
	wolfeEnergy          0.0001 \
	wolfeGradient        0.9 \
	fdTest               no
lcao-params -1 1e-06 0.01
pcm-variant GLSSA13
spintype no-spin
subspace-rotation-factor 1 yes
symmetries automatic
symmetry-threshold 0.0001



---------- Setting up symmetries ----------

Found 48 point-group symmetries of the bravais lattice
Found 48 space-group symmetries with basis
Applied RMS atom displacement 0 bohrs to make symmetries exact.

---------- Initializing the Grid ----------
R = 
[            0        3.825        3.825  ]
[        3.825            0        3.825  ]
[        3.825        3.825            0  ]
unit cell volume = 111.924
G =
[  -0.821331   0.821331   0.821331  ]
[   0.821331  -0.821331   0.821331  ]
[   0.821331   0.821331  -0.821331  ]
Minimum fftbox size, Smin = [  28  28  28  ]
Chosen fftbox size, S = [  28  28  28  ]

---------- Exchange Correlation functional ----------
Initalized PBE GGA exchange.
Initalized PBE GGA correlation.

---------- Setting up pseudopotentials ----------
Width of ionic core gaussian charges (only for fluid interactions / plotting) set to 0

Reading pseudopotential file '/Users/ali/Desktop/JDFTX/build-withlibxc/pseudopotentials/SG15/al_ONCV_PBE.upf':
  'Al' pseudopotential, 'PBE' functional
  Generated using ONCVPSP code by D. R. Hamann
  Author: Martin Schlipf and Francois Gygi  Date: 150915.
  11 valence electrons, 4 orbitals, 4 projectors, 1876 radial grid points, with lMax = 1
  Transforming local potential to a uniform radial grid of dG=0.02 with 1912 points.
  Transforming nonlocal projectors to a uniform radial grid of dG=0.02 with 528 points.
    2S    l: 0   occupation:  2.0   eigenvalue: -3.974996
    2P    l: 1   occupation:  6.0   eigenvalue: -2.559335
    3S    l: 0   occupation:  2.0   eigenvalue: -0.284914
    3P    l: 1   occupation:  1.0   eigenvalue: -0.099668
  Transforming atomic orbitals to a uniform radial grid of dG=0.02 with 528 points.
  Core radius for overlap checks: 2.11 bohrs.
  Reading pulay file /Users/ali/Desktop/JDFTX/build-withlibxc/pseudopotentials/SG15/al_ONCV_PBE.pulay ... using dE_dnG = -7.132204e-04 computed for Ecut = 30.

Initialized 1 species with 1 total atoms.

Folded 1 k-points by 12x12x12 to 1728 k-points.

---------- Setting up k-points, bands, fillings ----------
Reduced to 72 k-points under symmetry. 
Computing the number of bands and number of electrons
Calculating initial fillings.
nElectrons:  11.000000   nBands: 16   nStates: 72

----- Setting up reduced wavefunction bases (one per k-point) -----
average nbasis = 878.135 , ideal nbasis = 878.416

----- Initializing Supercell corresponding to k-point mesh -----
Lattice vector linear combinations in supercell:
[  12   0   0  ]
[   0  12   0  ]
[   0   0  12  ]
Supercell lattice vectors:
[  0  45.9  45.9  ]
[  45.9  0  45.9  ]
[  45.9  45.9  0  ]

---------- Setting up ewald sum ----------
Optimum gaussian width for ewald sums = 1.949996 bohr.
Real space sum over 2197 unit cells with max indices [  6  6  6  ]
Reciprocal space sum over 2197 terms with max indices [  6  6  6  ]

---------- Allocating electronic variables ----------
Initializing wave functions:  linear combination of atomic orbitals
Note: number of bands (16) exceeds available atomic orbitals (8)
Al pseudo-atom occupations:   s ( 2 2 )  p ( 6 1 )
	FillingsUpdate:  mu: +0.406369497  nElectrons: 11.000000
LCAOMinimize: Iter:   0  F: -69.1967791602214390  |grad|_K:  1.884e-04  alpha:  1.000e+00
	FillingsUpdate:  mu: +0.406695235  nElectrons: 11.000000
LCAOMinimize: Iter:   1  F: -69.1970376169181947  |grad|_K:  9.182e-06  alpha:  7.905e-01  linmin: -2.210e-03  cgtest:  8.425e-03  t[s]:      1.19
	FillingsUpdate:  mu: +0.406701313  nElectrons: 11.000000
LCAOMinimize: Iter:   2  F: -69.1970383466238701  |grad|_K:  1.122e-07  alpha:  9.386e-01  linmin: -4.900e-03  cgtest: -2.751e-03  t[s]:      1.48
	FillingsUpdate:  mu: +0.406701418  nElectrons: 11.000000
LCAOMinimize: Iter:   3  F: -69.1970383467275951  |grad|_K:  1.251e-08  alpha:  8.833e-01  linmin: -1.665e-02  cgtest:  1.272e-01  t[s]:      1.78
LCAOMinimize: Encountered beta<0, resetting CG.
LCAOMinimize: Converged (|Delta F|<1.000000e-06 for 2 iters).


---- Citations for features of the code used in this run ----

   Software package:
      R. Sundararaman, K. Letchworth-Weaver, K.A. Schwarz, D. Gunceler, Y. Ozhabes and T.A. Arias, 'JDFTx: software for joint density-functional theory', SoftwareX 6, 278 (2017)

   gga-PBE exchange-correlation functional:
      J.P. Perdew, K. Burke and M. Ernzerhof, Phys. Rev. Lett. 77, 3865 (1996)

   Pseudopotentials:
      M Schlipf and F Gygi, Comput. Phys. Commun. 196, 36 (2015)

   Linear-tetrahedron sampling for density of states:
      G. Lehmann and M. Taut, Phys. status solidi (b) 54, 469 (1972)

This list may not be complete. Please suggest additional citations or
report any other bugs at https://github.com/shankar1729/jdftx/issues

Initialization completed successfully at t[s]:      1.82

	FillingsUpdate:  mu: +0.406701418  nElectrons: 11.000000

-------- Electronic minimization -----------
Will mix electronic density at each iteration.
	FillingsUpdate:  mu: +0.406701418  nElectrons: 11.000000
	FillingsUpdate:  mu: +0.398672684  nElectrons: 11.000000
SCF: Cycle:  0   F: -69.207330844270430   dF: -1.029e-02   |Residual|: 4.878e-03   |deigs|: 5.098e-01  t[s]:      2.82
	FillingsUpdate:  mu: +0.398760994  nElectrons: 11.000000
SCF: Cycle:  1   F: -69.207372335933400   dF: -4.149e-05   |Residual|: 2.975e-03   |deigs|: 1.259e-02  t[s]:      3.42
	FillingsUpdate:  mu: +0.398960514  nElectrons: 11.000000
SCF: Cycle:  2   F: -69.207373438744682   dF: -1.103e-06   |Residual|: 3.355e-04   |deigs|: 3.232e-03  t[s]:      4.01
	FillingsUpdate:  mu: +0.398943909  nElectrons: 11.000000
SCF: Cycle:  3   F: -69.207373454720312   dF: -1.598e-08   |Residual|: 1.129e-04   |deigs|: 1.528e-03  t[s]:      4.56
	FillingsUpdate:  mu: +0.398947250  nElectrons: 11.000000
SCF: Cycle:  4   F: -69.207373455536214   dF: -8.159e-10   |Residual|: 1.725e-05   |deigs|: 1.299e-03  t[s]:      5.15
	FillingsUpdate:  mu: +0.398947535  nElectrons: 11.000000
SCF: Cycle:  5   F: -69.207373455556095   dF: -1.988e-11   |Residual|: 1.514e-05   |deigs|: 8.420e-04  t[s]:      5.72
SCF: Converged (|Delta E|<1.000000e-08 for 2 iters).

Converging empty states (this may take a while): |deigs|: 1.050e-03

# Ionic positions in lattice coordinates:
ion Al   0.000000000000000   0.000000000000000   0.000000000000000 0

# Forces in Lattice coordinates:
force Al  -0.000000000000000  -0.000000000000000  -0.000000000000000 0

# Energy components:
   Eewald =      -36.2593667299194635
       EH =       17.2907174584227441
     Eloc =      -56.7784500554377090
      Enl =      -15.1441822173797309
   Epulay =       -0.0000017910984154
      Exc =       -7.8254303740694979
       KE =       29.5127274536306494
-------------------------------------
     Etot =      -69.2039862558514329
       TS =        0.0033871997046557
-------------------------------------
        F =      -69.2073734555560947

IonicMinimize: Iter:   0  F: -69.207373455556095  |grad|_K:  0.000e+00  t[s]:      6.70
IonicMinimize: Converged (|grad|_K<1.000000e-04).

#--- Lowdin population analysis ---
# oxidation-state Al +0.045


Dumping 'totalE.fillings' ... done
Dumping 'totalE.wfns' ... done
Dumping 'totalE.n' ... done
Dumping 'totalE.eigenvals' ... done
Dumping 'totalE.FermiVelocity' ... done
Dumping 'totalE.dos' ... done.
End date and time: Sun Apr 18 16:19:27 2021  (Duration: 0-0:00:07.08)
Done!
